# vtk DataFile Version 2.0
Volume example
ASCII
DATASET STRUCTURED_POINTS
DIMENSIONS 128 128 128
ASPECT_RATIO 1 1 1
ORIGIN 0 0 0
POINT_DATA 2097152
SCALARS volume_scalars float 1
LOOKUP_TABLE default
